
Predictions were generated on 24-Feb-2026 at 22:01:18 using OpenFAST, compiled on Feb 11 2025 at 13:30:00 as a 64-bit application using single precision at commit v4.0.2
 linked with  NWTC Subroutine Library; ElastoDyn; InflowWind; AeroDyn; ServoDyn

Description from the FAST input file: FAST Certification Test #26: NREL 5.0 MW Baseline Wind Turbine (Onshore)

Time	Wind1VelX	Wind1VelY	Wind1VelZ	BldPitch1	BldPitch2	BldPitch3	Azimuth	RotSpeed	NacYaw	GenSpeed	TTDspFA	TTDspSS	TTDspTwst	RotTorq	LSSGagMya	LSSGagMza	YawBrFxp	YawBrFyp	YawBrFzp	YawBrMxp	YawBrMyp	YawBrMzp	TwrBsFxt	TwrBsFyt	TwrBsFzt	TwrBsMxt	TwrBsMyt	TwrBsMzt	RootFxb1	RootFyb1	RootFzb1	RootMxb1	RootMyb1	RootMzb1	TipDxb1	TipDyb1	TipDzb1	RootFxb2	RootFyb2	RootFzb2	RootMxb2	RootMyb2	RootMzb2	TipDxb2	TipDyb2	TipDzb2	RootFxb3	RootFyb3	RootFzb3	RootMxb3	RootMyb3	RootMzb3	TipDxb3	TipDyb3	TipDzb3	GenPwr	GenTq
(s)	(m/s)	(m/s)	(m/s)	(deg)	(deg)	(deg)	(deg)	(rpm)	(deg)	(rpm)	(m)	(m)	(deg)	(kN-m)	(kN-m)	(kN-m)	(kN)	(kN)	(kN)	(kN-m)	(kN-m)	(kN-m)	(kN)	(kN)	(kN)	(kN-m)	(kN-m)	(kN-m)	(kN)	(kN)	(kN)	(kN-m)	(kN-m)	(kN-m)	(m)	(m)	(m)	(kN)	(kN)	(kN)	(kN-m)	(kN-m)	(kN-m)	(m)	(m)	(m)	(kN)	(kN)	(kN)	(kN-m)	(kN-m)	(kN-m)	(m)	(m)	(m)	(kW)	(kN-m)
    0.0000	 4.470E+00	 0.000E+00	 0.000E+00	 0.000E+00	 0.000E+00	 0.000E+00	 0.000E+00	 1.210E+01	 5.000E+00	 1.174E+03	 0.000E+00	 0.000E+00	 0.000E+00	 3.098E-05	-1.924E+03	-6.770E+01	 1.283E+01	 9.934E-01	-3.320E+03	 2.904E+01	-3.974E+02	-6.800E+01	-1.501E+01	-1.110E+00	-6.727E+03	 1.987E+01	-3.403E+02	-6.800E+01	 1.392E+01	-5.516E-02	 4.527E+02	-6.387E-01	 1.261E+02	 7.703E-07	 0.000E+00	 0.000E+00	 0.000E+00	 1.552E+01	-9.074E+01	 7.061E+02	 8.198E+02	 1.056E+02	 1.583E-05	 0.000E+00	 0.000E+00	 0.000E+00	 1.871E+01	 9.061E+01	 7.060E+02	-8.201E+02	 1.788E+02	 1.797E-04	 0.000E+00	 0.000E+00	 0.000E+00	 5.000E+03	 4.309E+01
    0.1000	 4.470E+00	 0.000E+00	 0.000E+00	 0.000E+00	 0.000E+00	 0.000E+00	 7.224E+00	 1.189E+01	 5.000E+00	 1.118E+03	-1.009E-03	-4.287E-04	 0.000E+00	 2.744E+03	-2.026E+03	 1.350E+02	-9.373E+00	 8.965E+01	-3.348E+03	 2.620E+03	-4.248E+02	-2.624E+02	 2.488E+01	-2.277E+01	-6.755E+03	-3.200E+01	 6.160E+02	-2.624E+02	 2.003E+01	-6.273E+01	 4.464E+02	 9.203E+02	 4.158E+02	-5.263E+01	 1.794E-01	-4.900E-02	-4.651E-04	 2.411E+01	-1.525E+02	 7.272E+02	 2.098E+03	 3.924E+02	-5.809E+01	 1.762E-01	-1.298E-01	-6.077E-04	 2.620E+01	 5.683E+01	 6.744E+02	-5.636E+02	 4.879E+02	-5.059E+01	 2.277E-01	 3.883E-02	-8.226E-04	 4.782E+03	 4.329E+01
    0.2000	 4.470E+00	 0.000E+00	 0.000E+00	 0.000E+00	 0.000E+00	 0.000E+00	 1.425E+01	 1.163E+01	 5.000E+00	 1.113E+03	-3.325E-03	-3.012E-03	 0.000E+00	 4.882E+03	-2.203E+03	 3.324E+02	-7.695E+00	 4.029E+01	-3.414E+03	 4.842E+03	-6.451E+02	-5.471E+02	 2.880E+01	 1.723E+02	-6.821E+03	-5.554E+03	 4.605E+02	-5.472E+02	 3.941E+01	-6.656E+01	 4.381E+02	 1.956E+03	 1.155E+03	-6.202E+01	 6.159E-01	-3.491E-01	-6.487E-03	 4.210E+01	-1.601E+02	 7.403E+02	 3.961E+03	 1.076E+03	-7.048E+01	 6.919E-01	-6.192E-01	-1.086E-02	 4.283E+01	 1.134E+02	 6.319E+02	-1.201E+03	 1.308E+03	-5.111E+01	 8.216E-01	-1.620E-02	-1.017E-02	 4.750E+03	 4.315E+01
    0.3000	 4.470E+00	 0.000E+00	 0.000E+00	 0.000E+00	 0.000E+00	 0.000E+00	 2.130E+01	 1.186E+01	 5.000E+00	 1.140E+03	-5.559E-03	-8.020E-03	 0.000E+00	 6.187E+03	-2.662E+03	 2.622E+02	 2.791E+01	 4.909E+01	-3.478E+03	 6.097E+03	-9.543E+02	-1.241E+03	-2.308E+01	 2.038E+02	-6.886E+03	-6.146E+03	-1.204E+03	-1.241E+03	 5.664E+01	-9.505E+01	 4.401E+02	 2.861E+03	 1.903E+03	-7.313E+01	 1.272E+00	-5.533E-01	-2.676E-02	 5.879E+01	-1.874E+02	 7.400E+02	 5.516E+03	 1.989E+03	-9.736E+01	 1.520E+00	-9.922E-01	-4.403E-02	 7.225E+01	 1.503E+02	 6.021E+02	-2.379E+03	 2.595E+03	-4.215E+01	 1.617E+00	 1.134E-01	-3.868E-02	 4.696E+03	 4.165E+01
    0.4000	 4.470E+00	 0.000E+00	 0.000E+00	 0.000E+00	 0.000E+00	 0.000E+00	 2.841E+01	 1.178E+01	 5.000E+00	 1.176E+03	-6.465E-03	-1.497E-02	 0.000E+00	 4.909E+03	-3.546E+03	 4.148E+02	 4.900E+01	 7.707E+01	-3.517E+03	 4.796E+03	-1.864E+03	-1.850E+03	-9.250E+00	 5.593E+01	-6.925E+03	-1.026E+03	-8.392E+02	-1.850E+03	 6.302E+01	-1.291E+02	 4.350E+02	 3.034E+03	 2.575E+03	-7.113E+01	 2.075E+00	-5.538E-01	-6.849E-02	 9.317E+01	-2.025E+02	 7.253E+02	 5.600E+03	 3.441E+03	-1.084E+02	 2.408E+00	-1.019E+00	-9.415E-02	 1.117E+02	 1.719E+02	 5.741E+02	-3.988E+03	 4.149E+03	-7.834E+00	 2.394E+00	 4.152E-01	-8.440E-02	 4.789E+03	 4.120E+01
    0.5000	 4.470E+00	 0.000E+00	 0.000E+00	 0.000E+00	 0.000E+00	 0.000E+00	 3.545E+01	 1.170E+01	 5.000E+00	 1.160E+03	-4.294E-03	-2.239E-02	 0.000E+00	 1.676E+03	-4.002E+03	 1.184E+03	 4.851E+01	 1.073E+01	-3.521E+03	 1.797E+03	-2.831E+03	-1.704E+03	 6.544E+01	-2.004E+01	-6.928E+03	 2.647E+03	 1.563E+03	-1.704E+03	 7.729E+01	-1.221E+02	 4.351E+02	 2.724E+03	 3.495E+03	-7.165E+01	 2.812E+00	-5.604E-01	-1.225E-01	 1.433E+02	-1.446E+02	 7.164E+02	 4.124E+03	 5.181E+03	-9.959E+01	 3.130E+00	-8.615E-01	-1.447E-01	 1.410E+02	 2.160E+02	 5.506E+02	-5.257E+03	 5.365E+03	 1.854E+01	 3.003E+00	 5.662E-01	-1.318E-01	 4.829E+03	 4.213E+01
    0.6000	 4.470E+00	 0.000E+00	 0.000E+00	 0.000E+00	 0.000E+00	 0.000E+00	 4.243E+01	 1.151E+01	 5.000E+00	 1.109E+03	 3.269E-03	-2.807E-02	 0.000E+00	 1.377E+03	-3.203E+03	 2.089E+03	 6.801E+01	 3.509E+01	-3.488E+03	 1.498E+03	-2.511E+03	-8.945E+02	 6.457E+01	-1.072E+02	-6.895E+03	 5.697E+03	 2.380E+03	-8.946E+02	 1.119E+02	-1.637E+02	 4.385E+02	 3.217E+03	 4.690E+03	-6.677E+01	 3.223E+00	-5.865E-01	-1.537E-01	 1.714E+02	-1.173E+02	 7.046E+02	 2.592E+03	 6.276E+03	-6.187E+01	 3.629E+00	-5.712E-01	-1.861E-01	 1.432E+02	 1.773E+02	 5.352E+02	-4.626E+03	 5.678E+03	 2.768E+01	 3.345E+00	 5.080E-01	-1.629E-01	 4.488E+03	 4.095E+01
    0.7000	 4.470E+00	 0.000E+00	 0.000E+00	 0.000E+00	 0.000E+00	 0.000E+00	 4.925E+01	 1.126E+01	 5.000E+00	 1.073E+03	 1.785E-02	-3.197E-02	 0.000E+00	 2.719E+03	-1.622E+03	 2.648E+03	 1.206E+02	 1.104E+01	-3.442E+03	 2.890E+03	-1.346E+03	 2.528E+02	-7.409E+00	-1.327E+01	-6.850E+03	 3.228E+03	 1.973E+03	 2.529E+02	 1.525E+02	-1.752E+02	 4.438E+02	 4.120E+03	 5.673E+03	-9.151E+01	 3.217E+00	-7.894E-01	-1.479E-01	 1.692E+02	-5.117E+01	 6.942E+02	 1.158E+03	 6.373E+03	-4.927E+01	 3.766E+00	-4.085E-01	-2.000E-01	 1.334E+02	 1.416E+02	 5.147E+02	-2.698E+03	 5.327E+03	-1.438E+01	 3.290E+00	 1.215E-01	-1.556E-01	 4.184E+03	 3.945E+01
    0.8000	 4.470E+00	 0.000E+00	 0.000E+00	 0.000E+00	 0.000E+00	 0.000E+00	 5.601E+01	 1.132E+01	 5.000E+00	 1.075E+03	 3.964E-02	-3.525E-02	 0.000E+00	 5.003E+03	-7.415E+02	 2.871E+03	 1.438E+02	 3.103E+00	-3.412E+03	 5.176E+03	-7.510E+02	 7.222E+02	 2.658E+01	 1.013E+02	-6.820E+03	-9.676E+01	 5.407E+03	 7.227E+02	 1.490E+02	-1.944E+02	 4.483E+02	 5.037E+03	 5.411E+03	-1.064E+02	 3.029E+00	-9.637E-01	-1.339E-01	 1.492E+02	-8.170E+00	 6.972E+02	 2.315E+02	 5.660E+03	-3.777E+01	 3.492E+00	-2.784E-01	-1.740E-01	 1.136E+02	 8.915E+01	 4.891E+02	-4.319E+02	 4.533E+03	-5.402E+01	 2.969E+00	-2.870E-01	-1.281E-01	 4.031E+03	 3.795E+01
    0.9000	 4.470E+00	 0.000E+00	 0.000E+00	 0.000E+00	 0.000E+00	 0.000E+00	 6.282E+01	 1.134E+01	 5.000E+00	 1.111E+03	 6.683E-02	-3.972E-02	 0.000E+00	 5.561E+03	-8.441E+02	 2.809E+03	 1.380E+02	 1.482E+00	-3.406E+03	 5.711E+03	-8.914E+02	 3.225E+02	 1.656E+02	 1.058E+02	-6.813E+03	 1.409E+02	 1.245E+04	 3.234E+02	 1.006E+02	-2.083E+02	 4.505E+02	 5.148E+03	 4.003E+03	-9.616E+01	 2.833E+00	-9.440E-01	-1.246E-01	 1.182E+02	 1.449E+01	 7.032E+02	-5.286E+02	 4.488E+03	-2.424E+01	 2.990E+00	-1.089E-01	-1.307E-01	 8.829E+01	 4.940E+01	 4.518E+02	 7.181E+02	 3.606E+03	-6.222E+01	 2.584E+00	-4.404E-01	-1.001E-01	 4.002E+03	 3.645E+01
    1.0000	 4.470E+00	 0.000E+00	 0.000E+00	 0.000E+00	 0.000E+00	 0.000E+00	 6.963E+01	 1.137E+01	 5.000E+00	 1.131E+03	 9.587E-02	-4.632E-02	 0.000E+00	 3.288E+03	-9.309E+02	 2.602E+03	 1.767E+02	-3.615E+01	-3.419E+03	 3.497E+03	-9.494E+02	-2.369E+01	 2.330E+02	 2.075E+01	-6.826E+03	 3.759E+03	 1.771E+04	-2.272E+01	 6.793E+01	-1.841E+02	 4.644E+02	 4.262E+03	 2.907E+03	-7.567E+01	 2.533E+00	-7.782E-01	-1.034E-01	 9.440E+01	 4.772E+01	 7.057E+02	-1.221E+03	 3.517E+03	-2.212E+01	 2.445E+00	 1.302E-02	-8.899E-02	 7.420E+01	 6.199E+01	 4.157E+02	 1.343E+02	 2.992E+03	-5.015E+01	 2.220E+00	-3.166E-01	-7.437E-02	 3.906E+03	 3.495E+01
    1.1000	 4.470E+00	 0.000E+00	 0.000E+00	 0.000E+00	 0.000E+00	 0.000E+00	 7.644E+01	 1.127E+01	 5.000E+00	 1.110E+03	 1.234E-01	-5.395E-02	 0.000E+00	 1.277E+03	-4.201E+02	 2.287E+03	 2.408E+02	-2.848E+01	-3.439E+03	 1.460E+03	-5.545E+02	 8.934E+01	 2.350E+02	-1.341E+02	-6.847E+03	 9.331E+03	 2.091E+04	 9.023E+01	 7.978E+01	-1.836E+02	 4.850E+02	 3.439E+03	 2.935E+03	-5.182E+01	 2.114E+00	-5.348E-01	-6.838E-02	 8.340E+01	 3.558E+01	 7.009E+02	-1.102E+03	 2.995E+03	-2.186E+01	 2.010E+00	 6.631E-02	-5.988E-02	 7.699E+01	 6.973E+01	 3.899E+02	-1.206E+03	 2.872E+03	-2.570E+01	 1.917E+00	 2.031E-02	-5.423E-02	 3.669E+03	 3.345E+01
    1.2000	 4.470E+00	 0.000E+00	 0.000E+00	 0.000E+00	 0.000E+00	 0.000E+00	 8.312E+01	 1.102E+01	 5.000E+00	 1.066E+03	 1.478E-01	-6.076E-02	 0.000E+00	 6.768E+02	 1.685E+02	 2.019E+03	 2.743E+02	-5.416E+01	-3.450E+03	 8.968E+02	-2.419E+02	 2.098E+02	 2.851E+02	-1.435E+02	-6.858E+03	 1.051E+04	 2.506E+04	 2.108E+02	 1.032E+02	-1.799E+02	 5.071E+02	 3.256E+03	 3.352E+03	-5.109E+01	 1.769E+00	-4.733E-01	-4.450E-02	 8.166E+01	 2.739E+01	 6.872E+02	-2.942E+02	 2.790E+03	-3.534E+01	 1.762E+00	-8.556E-02	-4.512E-02	 8.506E+01	 9.380E+01	 3.685E+02	-2.398E+03	 3.022E+03	-1.586E+01	 1.732E+00	 2.595E-01	-4.373E-02	 3.387E+03	 3.213E+01
    1.3000	 4.470E+00	 0.000E+00	 0.000E+00	 0.000E+00	 0.000E+00	 0.000E+00	 8.970E+01	 1.092E+01	 5.000E+00	 1.034E+03	 1.686E-01	-6.475E-02	 0.000E+00	 2.307E+03	 9.335E+01	 2.017E+03	 2.896E+02	-5.286E+01	-3.438E+03	 2.457E+03	-1.121E+02	-3.842E+02	 3.544E+02	-7.443E+01	-6.847E+03	 8.696E+03	 2.935E+04	-3.825E+02	 9.854E+01	-1.900E+02	 5.267E+02	 3.962E+03	 3.161E+03	-6.250E+01	 1.678E+00	-6.192E-01	-4.165E-02	 8.439E+01	 1.693E+01	 6.647E+02	 8.149E+02	 2.794E+03	-5.139E+01	 1.708E+00	-3.284E-01	-4.262E-02	 8.559E+01	 9.936E+01	 3.586E+02	-2.592E+03	 3.047E+03	-1.696E+01	 1.701E+00	 2.861E-01	-4.205E-02	 3.219E+03	 3.150E+01
    1.4000	 4.470E+00	 0.000E+00	 0.000E+00	 0.000E+00	 0.000E+00	 0.000E+00	 9.624E+01	 1.088E+01	 5.000E+00	 1.042E+03	 1.849E-01	-6.519E-02	 0.000E+00	 4.371E+03	-3.668E+02	 2.292E+03	 3.236E+02	-2.583E+01	-3.418E+03	 4.379E+03	-9.776E+00	-1.294E+03	 3.665E+02	-1.944E+01	-6.826E+03	 6.754E+03	 3.155E+04	-1.291E+03	 7.751E+01	-2.076E+02	 5.377E+02	 4.886E+03	 2.619E+03	-7.686E+01	 1.749E+00	-8.092E-01	-5.003E-02	 9.388E+01	 1.722E+01	 6.331E+02	 1.209E+03	 3.065E+03	-5.819E+01	 1.767E+00	-4.317E-01	-4.539E-02	 8.296E+01	 7.729E+01	 3.559E+02	-1.898E+03	 2.969E+03	-2.527E+01	 1.759E+00	 1.638E-01	-4.475E-02	 3.180E+03	 3.089E+01
    1.5000	 4.470E+00	 0.000E+00	 0.000E+00	 0.000E+00	 0.000E+00	 0.000E+00	 1.028E+02	 1.095E+01	 5.000E+00	 1.071E+03	 1.956E-01	-6.266E-02	 0.000E+00	 4.406E+03	-2.678E+02	 2.454E+03	 3.511E+02	-4.140E+01	-3.412E+03	 4.442E+03	-1.298E+01	-1.377E+03	 3.730E+02	 2.001E+01	-6.821E+03	 5.374E+03	 3.294E+04	-1.374E+03	 7.877E+01	-2.056E+02	 5.466E+02	 5.146E+03	 2.643E+03	-8.158E+01	 1.782E+00	-8.866E-01	-5.318E-02	 1.049E+02	 5.986E+01	 6.035E+02	 7.143E+01	 3.438E+03	-4.908E+01	 1.860E+00	-2.766E-01	-4.837E-02	 8.881E+01	 5.076E+01	 3.534E+02	-9.489E+02	 3.107E+03	-3.525E+01	 1.796E+00	-1.096E-02	-4.569E-02	 3.234E+03	 3.055E+01
    1.6000	 4.470E+00	 0.000E+00	 0.000E+00	 0.000E+00	 0.000E+00	 0.000E+00	 1.094E+02	 1.098E+01	 5.000E+00	 1.085E+03	 2.006E-01	-5.795E-02	 0.000E+00	 2.888E+03	 4.222E+02	 2.389E+03	 3.566E+02	-4.235E+01	-3.429E+03	 3.018E+03	-2.515E+02	-6.504E+02	 4.047E+02	-3.897E+01	-6.838E+03	 6.776E+03	 3.439E+04	-6.482E+02	 9.717E+01	-2.053E+02	 5.539E+02	 4.700E+03	 3.148E+03	-7.134E+01	 1.784E+00	-7.690E-01	-4.943E-02	 1.092E+02	 1.085E+02	 5.828E+02	-2.064E+03	 3.661E+03	-2.330E+01	 1.944E+00	 1.234E-01	-5.274E-02	 9.724E+01	 3.054E+00	 3.472E+02	 9.774E+01	 3.346E+03	-3.947E+01	 1.824E+00	-1.387E-01	-4.612E-02	 3.267E+03	 3.046E+01
    1.7000	 4.470E+00	 0.000E+00	 0.000E+00	 0.000E+00	 0.000E+00	 0.000E+00	 1.159E+02	 1.083E+01	 5.000E+00	 1.066E+03	 2.006E-01	-5.198E-02	 0.000E+00	 1.031E+03	 1.156E+03	 2.313E+03	 3.653E+02	-4.398E+01	-3.458E+03	 1.273E+03	-6.619E+02	 9.001E+01	 4.098E+02	-1.074E+02	-6.867E+03	 8.379E+03	 3.456E+04	 9.138E+01	 1.083E+02	-1.865E+02	 5.604E+02	 3.897E+03	 3.499E+03	-6.176E+01	 1.836E+00	-6.188E-01	-4.893E-02	 1.077E+02	 1.617E+02	 5.675E+02	-4.126E+03	 3.688E+03	-1.301E+00	 1.982E+00	 4.956E-01	-5.845E-02	 9.710E+01	-3.706E+01	 3.368E+02	 1.144E+03	 3.359E+03	-4.666E+01	 1.879E+00	-2.936E-01	-4.957E-02	 3.197E+03	 3.034E+01
    1.8000	 4.470E+00	 0.000E+00	 0.000E+00	 0.000E+00	 0.000E+00	 0.000E+00	 1.224E+02	 1.067E+01	 5.000E+00	 1.026E+03	 1.957E-01	-4.554E-02	 0.000E+00	 8.874E+02	 1.524E+03	 2.199E+03	 3.602E+02	-3.810E+01	-3.483E+03	 1.147E+03	-8.467E+02	 2.443E+02	 3.996E+02	-9.601E+01	-6.892E+03	 7.373E+03	 3.371E+04	 2.455E+02	 1.029E+02	-1.680E+02	 5.696E+02	 3.435E+03	 3.417E+03	-5.830E+01	 1.925E+00	-5.583E-01	-5.380E-02	 1.019E+02	 1.886E+02	 5.584E+02	-4.924E+03	 3.541E+03	 4.433E+00	 1.979E+00	 6.258E-01	-6.091E-02	 9.120E+01	-7.277E+01	 3.239E+02	 2.278E+03	 3.208E+03	-5.713E+01	 1.944E+00	-4.883E-01	-5.540E-02	 3.040E+03	 2.997E+01
    1.9000	 4.470E+00	 0.000E+00	 0.000E+00	 0.000E+00	 0.000E+00	 0.000E+00	 1.287E+02	 1.055E+01	 5.000E+00	 1.003E+03	 1.856E-01	-3.931E-02	 0.000E+00	 2.538E+03	 1.611E+03	 2.017E+03	 3.323E+02	-2.200E+01	-3.490E+03	 2.717E+03	-7.129E+02	-6.382E+01	 3.890E+02	-7.650E+00	-6.898E+03	 3.891E+03	 3.222E+04	-6.223E+01	 9.491E+01	-1.595E+02	 5.798E+02	 3.451E+03	 3.210E+03	-5.990E+01	 1.967E+00	-5.867E-01	-5.770E-02	 9.735E+01	 1.779E+02	 5.485E+02	-4.209E+03	 3.394E+03	-4.584E+00	 1.956E+00	 4.829E-01	-5.812E-02	 8.634E+01	-1.006E+02	 3.087E+02	 3.159E+03	 3.113E+03	-6.521E+01	 2.001E+00	-6.439E-01	-6.089E-02	 2.915E+03	 2.940E+01
    2.0000	 4.470E+00	 0.000E+00	 0.000E+00	 0.000E+00	 0.000E+00	 0.000E+00	 1.350E+02	 1.054E+01	 5.000E+00	 1.013E+03	 1.705E-01	-3.364E-02	 0.000E+00	 3.982E+03	 1.572E+03	 1.721E+03	 3.031E+02	-8.438E+00	-3.469E+03	 4.061E+03	-3.322E+02	-4.139E+02	 3.469E+02	 7.317E+01	-6.878E+03	 7.424E+02	 2.924E+04	-4.120E+02	 9.388E+01	-1.429E+02	 5.899E+02	 3.431E+03	 3.160E+03	-6.331E+01	 1.940E+00	-6.280E-01	-5.683E-02	 9.711E+01	 1.534E+02	 5.310E+02	-2.772E+03	 3.375E+03	-2.144E+01	 1.952E+00	 1.902E-01	-5.509E-02	 8.918E+01	-1.009E+02	 2.983E+02	 3.190E+03	 3.224E+03	-6.535E+01	 2.033E+00	-6.676E-01	-6.272E-02	 2.891E+03	 2.887E+01
    2.1000	 4.470E+00	 0.000E+00	 0.000E+00	 0.000E+00	 0.000E+00	 0.000E+00	 1.414E+02	 1.061E+01	 5.000E+00	 1.037E+03	 1.513E-01	-2.829E-02	 0.000E+00	 3.963E+03	 1.475E+03	 1.401E+03	 2.773E+02	 1.588E+01	-3.428E+03	 3.938E+03	 7.018E+01	-5.941E+02	 2.792E+02	 5.403E+01	-6.836E+03	 6.983E+02	 2.509E+04	-5.925E+02	 9.669E+01	-1.283E+02	 5.979E+02	 3.041E+03	 3.232E+03	-5.824E+01	 1.886E+00	-5.625E-01	-5.252E-02	 9.903E+01	 1.202E+02	 5.053E+02	-1.535E+03	 3.460E+03	-3.209E+01	 1.996E+00	-2.873E-02	-5.646E-02	 9.541E+01	-8.927E+01	 2.971E+02	 2.310E+03	 3.437E+03	-5.053E+01	 2.058E+00	-4.891E-01	-6.150E-02	 2.932E+03	 2.859E+01
    2.2000	 4.470E+00	 0.000E+00	 0.000E+00	 0.000E+00	 0.000E+00	 0.000E+00	 1.478E+02	 1.058E+01	 5.000E+00	 1.046E+03	 1.295E-01	-2.265E-02	 0.000E+00	 2.375E+03	 1.321E+03	 1.216E+03	 2.379E+02	 1.534E+01	-3.386E+03	 2.327E+03	 2.417E+02	-6.634E+02	 2.333E+02	-2.537E+00	-6.794E+03	 2.008E+03	 2.126E+04	-6.625E+02	 9.537E+01	-1.083E+02	 6.053E+02	 2.294E+03	 3.212E+03	-4.856E+01	 1.844E+00	-4.205E-01	-4.889E-02	 1.020E+02	 1.033E+02	 4.727E+02	-1.107E+03	 3.611E+03	-3.282E+01	 2.070E+00	-9.094E-02	-6.035E-02	 9.679E+01	-7.238E+01	 3.037E+02	 1.061E+03	 3.555E+03	-3.097E+01	 2.086E+00	-2.285E-01	-6.134E-02	 2.947E+03	 2.849E+01
    2.3000	 4.470E+00	 0.000E+00	 0.000E+00	 0.000E+00	 0.000E+00	 0.000E+00	 1.541E+02	 1.047E+01	 5.000E+00	 1.024E+03	 1.063E-01	-1.601E-02	 0.000E+00	 9.478E+02	 1.206E+03	 1.195E+03	 1.905E+02	 1.238E+01	-3.367E+03	 8.966E+02	 2.246E+02	-7.378E+02	 2.024E+02	-4.338E+01	-6.774E+03	 2.724E+03	 1.772E+04	-7.374E+02	 8.848E+01	-9.048E+01	 6.115E+02	 1.716E+03	 3.043E+03	-4.179E+01	 1.824E+00	-3.160E-01	-4.778E-02	 1.036E+02	 1.050E+02	 4.398E+02	-1.350E+03	 3.732E+03	-2.648E+01	 2.144E+00	-3.861E-02	-6.477E-02	 9.127E+01	-6.978E+01	 3.170E+02	 4.793E+02	 3.467E+03	-2.120E+01	 2.102E+00	-9.168E-02	-6.262E-02	 2.869E+03	 2.834E+01
    2.4000	 4.470E+00	 0.000E+00	 0.000E+00	 0.000E+00	 0.000E+00	 0.000E+00	 1.603E+02	 1.031E+01	 5.000E+00	 9.905E+02	 8.296E-02	-8.284E-03	 0.000E+00	 1.152E+03	 1.310E+03	 1.191E+03	 1.573E+02	 3.019E+01	-3.381E+03	 1.065E+03	 1.115E+02	-8.036E+02	 1.485E+02	-3.155E+01	-6.789E+03	 1.480E+03	 1.354E+04	-8.033E+02	 8.282E+01	-8.242E+01	 6.134E+02	 1.692E+03	 2.897E+03	-4.211E+01	 1.810E+00	-3.249E-01	-4.766E-02	 1.016E+02	 1.175E+02	 4.107E+02	-1.871E+03	 3.744E+03	-1.870E+01	 2.199E+00	 5.181E-02	-6.873E-02	 8.437E+01	-9.489E+01	 3.329E+02	 1.223E+03	 3.256E+03	-2.925E+01	 2.080E+00	-2.061E-01	-6.223E-02	 2.739E+03	 2.797E+01
    2.5000	 4.470E+00	 0.000E+00	 0.000E+00	 0.000E+00	 0.000E+00	 0.000E+00	 1.665E+02	 1.022E+01	 5.000E+00	 9.742E+02	 6.008E-02	-4.393E-04	 0.000E+00	 2.550E+03	 1.649E+03	 1.096E+03	 1.291E+02	 4.033E+01	-3.427E+03	 2.457E+03	-1.813E+02	-8.470E+02	 9.778E+01	 6.077E+01	-6.834E+03	-2.256E+03	 9.535E+03	-8.467E+02	 8.324E+01	-7.388E+01	 6.125E+02	 1.974E+03	 2.905E+03	-4.817E+01	 1.802E+00	-4.177E-01	-4.768E-02	 9.868E+01	 1.408E+02	 3.863E+02	-2.520E+03	 3.703E+03	-1.290E+01	 2.209E+00	 1.421E-01	-7.010E-02	 8.086E+01	-1.380E+02	 3.456E+02	 2.983E+03	 3.086E+03	-5.185E+01	 2.020E+00	-5.274E-01	-6.084E-02	 2.644E+03	 2.745E+01
    2.6000	 4.470E+00	 0.000E+00	 0.000E+00	 0.000E+00	 0.000E+00	 0.000E+00	 1.726E+02	 1.023E+01	 5.000E+00	 9.851E+02	 3.844E-02	 6.319E-03	 0.000E+00	 3.746E+03	 2.119E+03	 9.150E+02	 9.349E+01	 5.132E+01	-3.481E+03	 3.664E+03	-6.970E+02	-8.844E+02	 7.879E+01	 1.383E+02	-6.889E+03	-5.414E+03	 6.568E+03	-8.841E+02	 8.918E+01	-6.351E+01	 6.100E+02	 2.025E+03	 3.064E+03	-5.066E+01	 1.809E+00	-4.580E-01	-4.774E-02	 9.581E+01	 1.609E+02	 3.671E+02	-3.239E+03	 3.654E+03	-5.435E+00	 2.173E+00	 2.635E-01	-6.865E-02	 7.959E+01	-1.880E+02	 3.511E+02	 4.824E+03	 2.996E+03	-7.331E+01	 1.959E+00	-8.504E-01	-6.133E-02	 2.630E+03	 2.701E+01
    2.7000	 4.470E+00	 0.000E+00	 0.000E+00	 0.000E+00	 0.000E+00	 0.000E+00	 1.787E+02	 1.026E+01	 5.000E+00	 1.006E+03	 1.889E-02	 1.127E-02	 0.000E+00	 3.428E+03	 2.537E+03	 6.701E+02	 6.544E+01	 6.454E+01	-3.517E+03	 3.362E+03	-1.227E+03	-8.758E+02	 5.714E+01	 1.238E+02	-6.924E+03	-5.490E+03	 3.776E+03	-8.757E+02	 9.464E+01	-4.055E+01	 6.047E+02	 1.418E+03	 3.249E+03	-4.489E+01	 1.836E+00	-3.676E-01	-4.788E-02	 9.215E+01	 1.733E+02	 3.529E+02	-3.906E+03	 3.563E+03	 2.166E+00	 2.111E+00	 3.981E-01	-6.606E-02	 7.775E+01	-2.193E+02	 3.522E+02	 5.783E+03	 2.922E+03	-8.222E+01	 1.928E+00	-1.006E+00	-6.242E-02	 2.663E+03	 2.678E+01
    2.8000	 4.470E+00	 0.000E+00	 0.000E+00	 0.000E+00	 0.000E+00	 0.000E+00	 1.849E+02	 1.023E+01	 5.000E+00	 1.008E+03	 2.130E-03	 1.454E-02	 0.000E+00	 1.979E+03	 2.735E+03	 3.396E+02	 4.690E+01	 6.976E+01	-3.515E+03	 1.938E+03	-1.513E+03	-7.678E+02	 1.988E+01	 5.526E+01	-6.923E+03	-3.634E+03	 8.535E+02	-7.678E+02	 9.589E+01	-8.985E+00	 5.985E+02	 3.459E+02	 3.333E+03	-3.354E+01	 1.858E+00	-1.811E-01	-4.813E-02	 8.687E+01	 1.681E+02	 3.423E+02	-4.090E+03	 3.403E+03	 5.145E+00	 2.043E+00	 4.644E-01	-6.303E-02	 7.522E+01	-2.241E+02	 3.545E+02	 5.615E+03	 2.859E+03	-7.596E+01	 1.922E+00	-9.535E-01	-6.132E-02	 2.659E+03	 2.667E+01
    2.9000	 4.470E+00	 0.000E+00	 0.000E+00	 0.000E+00	 0.000E+00	 0.000E+00	 1.910E+02	 1.011E+01	 5.000E+00	 9.862E+02	-1.138E-02	 1.678E-02	 0.000E+00	 9.480E+02	 2.593E+03	-7.834E+01	 1.957E+01	 6.597E+01	-3.479E+03	 9.229E+02	-1.414E+03	-5.493E+02	-4.014E+00	 1.858E+01	-6.887E+03	-2.631E+03	-1.368E+03	-5.492E+02	 9.093E+01	 1.859E+01	 5.931E+02	-5.851E+02	 3.227E+03	-2.371E+01	 1.856E+00	-1.516E-02	-4.850E-02	 8.056E+01	 1.382E+02	 3.314E+02	-3.351E+03	 3.212E+03	-7.662E-01	 1.982E+00	 3.697E-01	-5.880E-02	 7.418E+01	-2.118E+02	 3.602E+02	 4.782E+03	 2.856E+03	-6.173E+01	 1.915E+00	-7.800E-01	-5.800E-02	 2.583E+03	 2.649E+01
    3.0000	 4.470E+00	 0.000E+00	 0.000E+00	 0.000E+00	 0.000E+00	 0.000E+00	 1.970E+02	 9.970E+00	 5.000E+00	 9.573E+02	-2.111E-02	 1.839E-02	 0.000E+00	 1.268E+03	 2.228E+03	-5.118E+02	-5.319E+00	 6.389E+01	-3.428E+03	 1.230E+03	-1.005E+03	-2.794E+02	-2.779E+01	 4.491E+01	-6.836E+03	-3.603E+03	-3.183E+03	-2.794E+02	 8.348E+01	 3.946E+01	 5.876E+02	-9.586E+02	 3.025E+03	-2.245E+01	 1.825E+00	 2.774E-02	-4.770E-02	 7.547E+01	 9.423E+01	 3.172E+02	-1.758E+03	 3.043E+03	-1.702E+01	 1.938E+00	 9.468E-02	-5.463E-02	 7.573E+01	-1.886E+02	 3.706E+02	 3.887E+03	 2.904E+03	-5.084E+01	 1.891E+00	-6.223E-01	-5.434E-02	 2.473E+03	 2.613E+01
    3.1000	 4.470E+00	 0.000E+00	 0.000E+00	 0.000E+00	 0.000E+00	 0.000E+00	 2.030E+02	 9.903E+00	 5.000E+00	 9.459E+02	-2.651E-02	 1.896E-02	 0.000E+00	 2.578E+03	 1.910E+03	-8.406E+02	-1.094E+01	 7.152E+01	-3.388E+03	 2.497E+03	-5.654E+02	-1.097E+02	-6.504E+01	 9.912E+01	-6.795E+03	-5.458E+03	-4.869E+03	-1.098E+02	 8.000E+01	 4.959E+01	 5.800E+02	-8.401E+02	 2.907E+03	-2.652E+01	 1.769E+00	-2.379E-02	-4.483E-02	 7.353E+01	 4.853E+01	 2.981E+02	 1.189E+01	 2.947E+03	-3.588E+01	 1.918E+00	-2.260E-01	-5.345E-02	 7.748E+01	-1.685E+02	 3.858E+02	 3.295E+03	 2.933E+03	-4.577E+01	 1.862E+00	-5.318E-01	-5.160E-02	 2.400E+03	 2.567E+01
    3.2000	 4.470E+00	 0.000E+00	 0.000E+00	 0.000E+00	 0.000E+00	 0.000E+00	 2.089E+02	 9.907E+00	 5.000E+00	 9.576E+02	-2.715E-02	 1.745E-02	 0.000E+00	 3.436E+03	 1.733E+03	-1.027E+03	-1.191E+01	 6.698E+01	-3.376E+03	 3.349E+03	-3.824E+02	-7.232E+01	-7.386E+01	 1.425E+02	-6.784E+03	-6.675E+03	-5.190E+03	-7.245E+01	 8.043E+01	 5.709E+01	 5.696E+02	-7.240E+02	 2.887E+03	-2.922E+01	 1.716E+00	-6.741E-02	-4.190E-02	 7.423E+01	 1.933E+01	 2.740E+02	 1.016E+03	 2.955E+03	-4.575E+01	 1.918E+00	-4.042E-01	-5.414E-02	 7.733E+01	-1.590E+02	 4.051E+02	 3.020E+03	 2.914E+03	-4.402E+01	 1.841E+00	-4.902E-01	-5.009E-02	 2.394E+03	 2.529E+01
    3.3000	 4.470E+00	 0.000E+00	 0.000E+00	 0.000E+00	 0.000E+00	 0.000E+00	 2.149E+02	 9.927E+00	 5.000E+00	 9.735E+02	-2.284E-02	 1.316E-02	 0.000E+00	 2.958E+03	 1.656E+03	-1.154E+03	-1.153E+01	 5.310E+01	-3.395E+03	 2.909E+03	-5.054E+02	-8.413E+01	-4.584E+01	 1.217E+02	-6.803E+03	-5.506E+03	-3.886E+03	-8.423E+01	 8.104E+01	 6.939E+01	 5.562E+02	-9.756E+02	 2.898E+03	-2.688E+01	 1.701E+00	-3.282E-02	-4.107E-02	 7.544E+01	 1.574E+01	 2.504E+02	 7.889E+02	 3.016E+03	-4.023E+01	 1.921E+00	-3.452E-01	-5.364E-02	 7.679E+01	-1.615E+02	 4.270E+02	 3.027E+03	 2.877E+03	-4.402E+01	 1.823E+00	-4.823E-01	-4.919E-02	 2.415E+03	 2.509E+01
    3.4000	 4.470E+00	 0.000E+00	 0.000E+00	 0.000E+00	 0.000E+00	 0.000E+00	 2.208E+02	 9.883E+00	 5.000E+00	 9.720E+02	-1.375E-02	 6.381E-03	 0.000E+00	 1.708E+03	 1.661E+03	-1.320E+03	 8.352E+00	 4.661E+01	-3.431E+03	 1.697E+03	-7.814E+02	-1.410E+02	-2.248E+01	 3.733E+01	-6.839E+03	-2.141E+03	-2.136E+03	-1.411E+02	 8.087E+01	 8.472E+01	 5.392E+02	-1.506E+03	 2.924E+03	-2.078E+01	 1.727E+00	 6.254E-02	-4.264E-02	 7.566E+01	 2.959E+01	 2.342E+02	-2.988E+02	 3.030E+03	-2.462E+01	 1.903E+00	-1.155E-01	-5.183E-02	 7.772E+01	-1.759E+02	 4.474E+02	 3.408E+03	 2.858E+03	-4.707E+01	 1.801E+00	-5.307E-01	-4.841E-02	 2.400E+03	 2.497E+01
    3.5000	 4.470E+00	 0.000E+00	 0.000E+00	 0.000E+00	 0.000E+00	 0.000E+00	 2.267E+02	 9.767E+00	 5.000E+00	 9.502E+02	-5.530E-04	-1.786E-03	 0.000E+00	 9.391E+02	 1.745E+03	-1.541E+03	 3.912E+01	 3.611E+01	-3.465E+03	 9.626E+02	-1.079E+03	-3.384E+02	 2.346E+00	-1.827E+01	-6.873E+03	 4.811E+02	 1.299E+02	-3.384E+02	 8.180E+01	 1.012E+02	 5.197E+02	-1.980E+03	 2.981E+03	-1.593E+01	 1.770E+00	 1.387E-01	-4.517E-02	 7.424E+01	 4.530E+01	 2.267E+02	-1.372E+03	 2.961E+03	-1.189E+01	 1.844E+00	 1.084E-01	-4.915E-02	 7.910E+01	-1.965E+02	 4.636E+02	 4.200E+03	 2.837E+03	-5.546E+01	 1.776E+00	-6.646E-01	-4.853E-02	 2.327E+03	 2.477E+01
    3.6000	 4.470E+00	 0.000E+00	 0.000E+00	 0.000E+00	 0.000E+00	 0.000E+00	 2.325E+02	 9.653E+00	 5.000E+00	 9.261E+02	 1.574E-02	-9.894E-03	 0.000E+00	 1.420E+03	 1.861E+03	-1.790E+03	 6.201E+01	 2.408E+01	-3.481E+03	 1.457E+03	-1.293E+03	-6.835E+02	 5.301E+01	-4.511E+00	-6.888E+03	 9.053E+02	 3.452E+03	-6.835E+02	 8.461E+01	 1.144E+02	 4.998E+02	-2.170E+03	 3.071E+03	-1.504E+01	 1.807E+00	 1.509E-01	-4.702E-02	 7.083E+01	 4.516E+01	 2.262E+02	-1.654E+03	 2.822E+03	-9.716E+00	 1.754E+00	 1.804E-01	-4.488E-02	 7.946E+01	-2.160E+02	 4.736E+02	 5.147E+03	 2.790E+03	-6.673E+01	 1.761E+00	-8.448E-01	-5.048E-02	 2.236E+03	 2.442E+01
    3.7000	 4.470E+00	 0.000E+00	 0.000E+00	 0.000E+00	 0.000E+00	 0.000E+00	 2.383E+02	 9.601E+00	 5.000E+00	 9.196E+02	 3.417E-02	-1.689E-02	 0.000E+00	 2.574E+03	 1.890E+03	-2.077E+03	 9.009E+01	 2.123E+01	-3.472E+03	 2.596E+03	-1.329E+03	-9.592E+02	 9.671E+01	 3.037E+01	-6.880E+03	 4.583E+02	 6.805E+03	-9.590E+02	 8.785E+01	 1.255E+02	 4.799E+02	-2.212E+03	 3.162E+03	-1.641E+01	 1.830E+00	 1.295E-01	-4.794E-02	 6.666E+01	 2.418E+01	 2.305E+02	-9.769E+02	 2.629E+03	-1.730E+01	 1.663E+00	 6.973E-02	-4.004E-02	 8.015E+01	-2.200E+02	 4.771E+02	 5.653E+03	 2.772E+03	-7.403E+01	 1.766E+00	-9.623E-01	-5.291E-02	 2.183E+03	 2.401E+01
    3.8000	 4.470E+00	 0.000E+00	 0.000E+00	 0.000E+00	 0.000E+00	 0.000E+00	 2.441E+02	 9.615E+00	 5.000E+00	 9.315E+02	 5.381E-02	-2.256E-02	 0.000E+00	 3.164E+03	 1.683E+03	-2.385E+03	 1.303E+02	 1.647E+01	-3.450E+03	 3.196E+03	-1.229E+03	-9.022E+02	 1.185E+02	 4.173E+01	-6.857E+03	 6.247E+02	 9.674E+03	-9.018E+02	 8.920E+01	 1.370E+02	 4.605E+02	-2.413E+03	 3.201E+03	-1.567E+01	 1.840E+00	 1.466E-01	-4.845E-02	 6.454E+01	-1.290E+01	 2.352E+02	 2.765E+02	 2.474E+03	-2.868E+01	 1.598E+00	-1.416E-01	-3.703E-02	 8.307E+01	-2.000E+02	 4.782E+02	 5.186E+03	 2.851E+03	-6.972E+01	 1.786E+00	-9.045E-01	-5.276E-02	 2.182E+03	 2.370E+01
    3.9000	 4.470E+00	 0.000E+00	 0.000E+00	 0.000E+00	 0.000E+00	 0.000E+00	 2.498E+02	 9.627E+00	 5.000E+00	 9.442E+02	 7.376E-02	-2.732E-02	 0.000E+00	 2.614E+03	 1.210E+03	-2.620E+03	 1.629E+02	-1.662E+00	-3.430E+03	 2.719E+03	-1.140E+03	-4.767E+02	 1.571E+02	 1.961E+01	-6.837E+03	 1.865E+03	 1.304E+04	-4.762E+02	 8.780E+01	 1.484E+02	 4.425E+02	-2.866E+03	 3.160E+03	-1.104E+01	 1.827E+00	 2.314E-01	-4.841E-02	 6.623E+01	-5.745E+01	 2.353E+02	 1.592E+03	 2.464E+03	-3.851E+01	 1.577E+00	-3.478E-01	-3.661E-02	 8.771E+01	-1.619E+02	 4.826E+02	 3.777E+03	 3.004E+03	-5.299E+01	 1.810E+00	-6.579E-01	-4.989E-02	 2.197E+03	 2.353E+01
    4.0000	 4.470E+00	 0.000E+00	 0.000E+00	 0.000E+00	 0.000E+00	 0.000E+00	 2.556E+02	 9.577E+00	 5.000E+00	 9.400E+02	 9.333E-02	-3.178E-02	 0.000E+00	 1.497E+03	 6.317E+02	-2.714E+03	 1.879E+02	-2.152E+01	-3.422E+03	 1.692E+03	-1.083E+03	 6.731E+01	 2.089E+02	-2.821E+01	-6.830E+03	 3.907E+03	 1.672E+04	 6.781E+01	 8.511E+01	 1.578E+02	 4.255E+02	-3.316E+03	 3.070E+03	-6.468E+00	 1.784E+00	 3.251E-01	-4.706E-02	 7.067E+01	-9.664E+01	 2.307E+02	 2.642E+03	 2.575E+03	-4.586E+01	 1.600E+00	-5.052E-01	-3.845E-02	 9.172E+01	-1.176E+02	 4.922E+02	 2.074E+03	 3.138E+03	-3.368E+01	 1.822E+00	-3.511E-01	-4.740E-02	 2.177E+03	 2.342E+01
    4.1000	 4.470E+00	 0.000E+00	 0.000E+00	 0.000E+00	 0.000E+00	 0.000E+00	 2.613E+02	 9.472E+00	 5.000E+00	 9.194E+02	 1.119E-01	-3.647E-02	 0.000E+00	 9.668E+02	 1.449E+02	-2.672E+03	 2.203E+02	-3.044E+01	-3.428E+03	 1.204E+03	-9.494E+02	 3.971E+02	 2.377E+02	-6.494E+01	-6.836E+03	 5.544E+03	 1.965E+04	 3.976E+02	 8.276E+01	 1.594E+02	 4.080E+02	-3.390E+03	 2.965E+03	-6.174E+00	 1.721E+00	 3.465E-01	-4.414E-02	 7.526E+01	-1.229E+02	 2.249E+02	 3.326E+03	 2.697E+03	-5.118E+01	 1.656E+00	-6.111E-01	-4.200E-02	 9.274E+01	-8.398E+01	 5.055E+02	 9.451E+02	 3.171E+03	-2.290E+01	 1.816E+00	-1.551E-01	-4.632E-02	 2.111E+03	 2.322E+01
    4.2000	 4.470E+00	 0.000E+00	 0.000E+00	 0.000E+00	 0.000E+00	 0.000E+00	 2.670E+02	 9.373E+00	 5.000E+00	 8.995E+02	 1.288E-01	-4.169E-02	 0.000E+00	 1.510E+03	-1.783E+02	-2.519E+03	 2.486E+02	-3.729E+01	-3.440E+03	 1.741E+03	-7.181E+02	 3.783E+02	 2.590E+02	-4.826E+01	-6.848E+03	 5.547E+03	 2.216E+04	 3.791E+02	 8.075E+01	 1.527E+02	 3.881E+02	-3.011E+03	 2.864E+03	-1.028E+01	 1.669E+00	 2.741E-01	-4.104E-02	 7.863E+01	-1.343E+02	 2.207E+02	 3.577E+03	 2.798E+03	-5.340E+01	 1.723E+00	-6.546E-01	-4.571E-02	 9.070E+01	-7.205E+01	 5.203E+02	 8.528E+02	 3.087E+03	-2.466E+01	 1.793E+00	-1.575E-01	-4.536E-02	 2.037E+03	 2.290E+01
    4.3000	 4.470E+00	 0.000E+00	 0.000E+00	 0.000E+00	 0.000E+00	 0.000E+00	 2.726E+02	 9.335E+00	 5.000E+00	 8.960E+02	 1.430E-01	-4.725E-02	 0.000E+00	 2.499E+03	-3.597E+02	-2.316E+03	 2.621E+02	-4.253E+01	-3.447E+03	 2.693E+03	-4.685E+02	 1.138E+02	 2.929E+02	-9.719E+00	-6.855E+03	 4.901E+03	 2.470E+04	 1.151E+02	 7.931E+01	 1.438E+02	 3.650E+02	-2.493E+03	 2.807E+03	-1.526E+01	 1.653E+00	 1.683E-01	-3.970E-02	 8.139E+01	-1.312E+02	 2.207E+02	 3.316E+03	 2.901E+03	-5.032E+01	 1.774E+00	-6.108E-01	-4.758E-02	 8.839E+01	-7.871E+01	 5.327E+02	 1.573E+03	 2.966E+03	-3.497E+01	 1.758E+00	-3.120E-01	-4.443E-02	 1.997E+03	 2.255E+01
    4.4000	 4.470E+00	 0.000E+00	 0.000E+00	 0.000E+00	 0.000E+00	 0.000E+00	 2.782E+02	 9.349E+00	 5.000E+00	 9.073E+02	 1.541E-01	-5.237E-02	 0.000E+00	 2.903E+03	-4.227E+02	-2.156E+03	 2.763E+02	-3.917E+01	-3.442E+03	 3.042E+03	-2.564E+02	-2.287E+02	 3.118E+02	-1.510E+01	-6.850E+03	 5.544E+03	 2.647E+04	-2.271E+02	 8.038E+01	 1.382E+02	 3.406E+02	-2.252E+03	 2.851E+03	-1.662E+01	 1.679E+00	 1.191E-01	-4.066E-02	 8.405E+01	-1.187E+02	 2.279E+02	 2.611E+03	 2.987E+03	-4.148E+01	 1.793E+00	-4.778E-01	-4.706E-02	 8.825E+01	-9.122E+01	 5.371E+02	 2.436E+03	 2.913E+03	-4.549E+01	 1.728E+00	-4.861E-01	-4.409E-02	 1.999E+03	 2.229E+01