
Predictions were generated on 17-Mar-2022 at 22:07:55
 OpenFAST



AirfoilNumber     TableNumber       alpha0            alpha1            alpha2            eta_e             C_nalpha          C_lalpha          T_f0              T_V0              T_p               T_VL              b1                b2                b5                A1                A2                A5                S1                S2                S3                S4                Cn1               Cn2               St_sh             Cd0               Cm0               k0                k1                k2                k3                k1_hat            x_cp_bar          UACutout          UACutout_delta    UACutout_blend    filtCutOff        alphaLower        alphaUpper        c_alphaLower      c_alphaUpper      alpha0ReverseFlow alphaBreakUpper   CnBreakUpper      alphaBreakLower   CnBreakLower     
(-)               (-)               (deg)             (deg)             (deg)             (-)               (-/rad)           (-/rad)           (-)               (-)               (-)               (-)               (-)               (-)               (-)               (-)               (-)               (-)               (-)               (-)               (-)               (-)               (-)               (-)               (-)               (-)               (-)               (-)               (-)               (-)               (-)               (-)               (-)               (deg)             (deg)             (deg)             (-)               (deg)             (deg)             (-)               (-)               (deg)             (deg)             (-)               (deg)             (-)              
                1                 1           0.00000           0.00000           0.00000           0.00000           0.00000           0.00000           0.00000           0.00000           0.00000           0.00000           0.00000           0.00000           0.00000           0.00000           0.00000           0.00000           0.00000           0.00000           0.00000           0.00000           0.00000           0.00000           0.00000           0.00000           0.00000           0.00000           0.00000           0.00000           0.00000           0.00000           0.00000           0.00000           0.00000           0.00000           0.00000           0.00000           0.00000           0.00000           0.00000           0.00000           0.00000           0.00000           0.00000           0.00000 
                2                 1           0.00000           0.00000           0.00000           0.00000           0.00000           0.00000           0.00000           0.00000           0.00000           0.00000           0.00000           0.00000           0.00000           0.00000           0.00000           0.00000           0.00000           0.00000           0.00000           0.00000           0.00000           0.00000           0.00000           0.00000           0.00000           0.00000           0.00000           0.00000           0.00000           0.00000           0.00000           0.00000           0.00000           0.00000           0.00000           0.00000           0.00000           0.00000           0.00000           0.00000           0.00000           0.00000           0.00000           0.00000 
                3                 1          -3.20000           9.00000          -9.00000           1.00000           7.48880           8.82355           3.00000           6.00000           1.70000          11.00000           0.14000           0.53000           5.00000           0.30000           0.70000           1.00000           0.00000           0.00000           0.00000           0.00000           1.35190          -0.32260           0.19000           0.03000          -0.05000           0.00000           0.00000           0.00000           0.00000           0.00000           0.20000          45.00000           5.00000          40.00000           0.50000           0.50000           2.00000           0.21283           0.44312         180.00000          75.63338          11.44508         -74.35390         -11.58539 
                4                 1          -1.20000          11.50000         -11.50000           1.00000           7.18380           7.90161           3.00000           6.00000           1.70000          11.00000           0.14000           0.53000           5.00000           0.30000           0.70000           1.00000           0.00000           0.00000           0.00000           0.00000           1.67170          -0.30750           0.19000           0.01200          -0.07000           0.00000           0.00000           0.00000           0.00000           0.00000           0.20000          45.00000           5.00000          40.00000           0.50000          -2.50000           5.50000          -0.16314           0.93656         180.00000          81.44025          10.80829         -78.55859         -11.12430 
                5                 1          -2.20000           9.00000          -9.00000           1.00000           7.33260           7.68295           3.00000           6.00000           1.70000          11.00000           0.14000           0.53000           5.00000           0.30000           0.70000           1.00000           0.00000           0.00000           0.00000           0.00000           1.44900          -0.61380           0.19000           0.00800          -0.09000           0.00000           0.00000           0.00000           0.00000           0.00000           0.20000          45.00000           5.00000          40.00000           0.50000          -6.13000           6.00000          -0.53967           1.06635         180.00000          82.57013          10.68438         -82.79855         -10.65933 
                6                 1          -3.20000           8.50000          -8.50000           1.00000           6.44620           7.56865           3.00000           6.00000           1.70000          11.00000           0.14000           0.53000           5.00000           0.30000           0.70000           1.00000           0.00000           0.00000           0.00000           0.00000           1.43360          -0.68730           0.19000           0.00600          -0.12000           0.00000           0.00000           0.00000           0.00000           0.00000           0.20000          45.00000           5.00000          40.00000           0.50000          -7.45000           3.50000          -0.55102           0.88841         180.00000          82.20393          10.72454         -82.18958         -10.72611 
                7                 1          -4.20000           8.00000          -8.00000           1.00000           6.20470           7.33245           3.00000           6.00000           1.70000          11.00000           0.14000           0.53000           5.00000           0.30000           0.70000           1.00000           0.00000           0.00000           0.00000           0.00000           1.41440          -0.53240           0.19000           0.00600          -0.12100           0.00000           0.00000           0.00000           0.00000           0.00000           0.20000          45.00000           5.00000          40.00000           0.50000          -8.12000           2.50000          -0.53153           0.82722         180.00000          83.87456          10.54133         -82.67990         -10.67234 
                8                 1          -4.43200           9.00000          -9.00000           1.00000           6.00310           6.63485           3.00000           6.00000           1.70000          11.00000           0.14000           0.53000           5.00000           0.30000           0.70000           1.00000           0.00000           0.00000           0.00000           0.00000           1.40730          -0.79450           0.19000           0.00650          -0.08800           0.00000           0.00000           0.00000           0.00000           0.00000           0.20000          45.00000           5.00000          40.00000           0.50000          -5.00000           4.00000          -0.15055           0.89574         180.00000          86.70515          10.23093         -83.29018         -10.60542 
